<?xml version="1.0" encoding="UTF-8"?>

<!-- generated on 2022-12-06 10:09:13 by Eclipse SUMO sumo Version 1.14.1
<configuration xmlns:xsi="http://www.w3.org/2001/XMLSchema-instance" xsi:noNamespaceSchemaLocation="http://sumo.dlr.de/xsd/sumoConfiguration.xsd">

    <input>
        <net-file value="verticalNetwork.net.xml"/>
        <route-files value="routes_HEAVY.rou.xml"/>
        <additional-files value="additionals.add.xml"/>
    </input>

    <time>
        <begin value="0"/>
        <end value="320"/>
    </time>

    <processing>
        <lateral-resolution value="0.5"/>
    </processing>

    <traci_server>
        <remote-port value="59387"/>
    </traci_server>

    <random_number>
        <random value="true"/>
    </random_number>

</configuration>
-->

<meandata xmlns:xsi="http://www.w3.org/2001/XMLSchema-instance" xsi:noNamespaceSchemaLocation="http://sumo.dlr.de/xsd/meandata_file.xsd">
    <interval begin="0.00" end="320.00" id="EMSData">
        <edge id="E1" sampledSeconds="26.32" traveltime="25.95" overlapTraveltime="28.26" density="0.92" laneDensity="0.46" occupancy="0.29" waitingTime="6.00" timeLoss="22.02" speed="3.40" speedRelative="0.24" departed="1" arrived="0" entered="0" left="1" laneChangedFrom="3" laneChangedTo="3"/>
        <edge id="E2" sampledSeconds="59.33" traveltime="57.60" overlapTraveltime="59.33" density="2.34" laneDensity="1.17" occupancy="0.75" waitingTime="40.00" timeLoss="55.22" speed="1.44" speedRelative="0.10" departed="0" arrived="0" entered="1" left="1" laneChangedFrom="0" laneChangedTo="0"/>
        <edge id="E3" sampledSeconds="14.11" traveltime="12.94" overlapTraveltime="14.11" density="0.56" laneDensity="0.28" occupancy="0.17" waitingTime="3.00" timeLoss="10.00" speed="6.07" speedRelative="0.44" departed="0" arrived="0" entered="1" left="1" laneChangedFrom="2" laneChangedTo="2"/>
        <edge id="E4" sampledSeconds="6.33" traveltime="6.05" overlapTraveltime="6.41" density="0.22" laneDensity="0.11" occupancy="0.07" waitingTime="0.00" timeLoss="1.77" speed="15.00" speedRelative="1.08" departed="0" arrived="1" entered="1" left="0" laneChangedFrom="0" laneChangedTo="0"/>
    </interval>
    <interval begin="0.00" end="320.00" id="OtherData">
        <edge id="-E1" sampledSeconds="262.10" traveltime="7.63" overlapTraveltime="8.01" density="9.14" laneDensity="4.57" occupancy="2.14" waitingTime="0.00" timeLoss="40.01" speed="11.81" speedRelative="0.85" departed="0" arrived="33" entered="33" left="0" laneChangedFrom="0" laneChangedTo="0"/>
        <edge id="-E10" sampledSeconds="187.47" traveltime="7.22" overlapTraveltime="7.60" density="6.54" laneDensity="3.27" occupancy="1.55" waitingTime="0.00" timeLoss="17.00" speed="12.44" speedRelative="0.90" departed="0" arrived="25" entered="25" left="0" laneChangedFrom="0" laneChangedTo="0"/>
        <edge id="-E2" sampledSeconds="860.10" traveltime="55.35" overlapTraveltime="61.44" density="33.94" laneDensity="16.97" occupancy="7.70" waitingTime="655.00" timeLoss="768.86" speed="1.37" speedRelative="0.10" departed="0" arrived="0" entered="14" left="14" laneChangedFrom="12" laneChangedTo="12"/>
        <edge id="-E3" sampledSeconds="3228.30" traveltime="104.89" overlapTraveltime="109.85" density="127.38" laneDensity="63.69" occupancy="30.78" waitingTime="2446.00" timeLoss="3047.56" speed="0.77" speedRelative="0.06" departed="0" arrived="0" entered="35" left="24" laneChangedFrom="18" laneChangedTo="18"/>
        <edge id="-E4" sampledSeconds="5247.26" traveltime="121.41" overlapTraveltime="124.57" density="183.01" laneDensity="91.50" occupancy="45.03" waitingTime="4171.00" timeLoss="4946.12" speed="0.76" speedRelative="0.05" departed="52" arrived="0" entered="0" left="38" laneChangedFrom="28" laneChangedTo="28"/>
        <edge id="-E5" sampledSeconds="383.35" traveltime="20.77" overlapTraveltime="21.33" density="13.37" laneDensity="6.69" occupancy="3.30" waitingTime="152.00" timeLoss="259.56" speed="4.44" speedRelative="0.32" departed="19" arrived="0" entered="0" left="19" laneChangedFrom="0" laneChangedTo="0"/>
        <edge id="-E6" sampledSeconds="3864.29" traveltime="54.63" overlapTraveltime="55.95" density="134.78" laneDensity="67.39" occupancy="33.11" waitingTime="2424.00" timeLoss="3353.39" speed="1.69" speedRelative="0.12" departed="73" arrived="0" entered="0" left="73" laneChangedFrom="24" laneChangedTo="24"/>
        <edge id="-E7" sampledSeconds="4026.99" traveltime="85.25" overlapTraveltime="86.61" density="140.45" laneDensity="70.23" occupancy="34.94" waitingTime="2722.00" timeLoss="3691.55" speed="1.09" speedRelative="0.08" departed="57" arrived="0" entered="0" left="42" laneChangedFrom="36" laneChangedTo="36"/>
        <edge id="-E8" sampledSeconds="5078.82" traveltime="161.18" overlapTraveltime="166.39" density="177.14" laneDensity="88.57" occupancy="43.43" waitingTime="3983.00" timeLoss="4852.45" speed="0.57" speedRelative="0.04" departed="41" arrived="0" entered="0" left="26" laneChangedFrom="19" laneChangedTo="19"/>
        <edge id="-E9" sampledSeconds="3416.92" traveltime="73.12" overlapTraveltime="75.24" density="119.17" laneDensity="59.59" occupancy="29.10" waitingTime="2156.00" timeLoss="3090.83" speed="1.26" speedRelative="0.09" departed="48" arrived="0" entered="0" left="48" laneChangedFrom="23" laneChangedTo="23"/>
        <edge id="E1" sampledSeconds="4011.19" traveltime="59.06" overlapTraveltime="59.76" density="139.90" laneDensity="69.95" occupancy="34.74" waitingTime="2513.00" timeLoss="3538.36" speed="1.58" speedRelative="0.11" departed="71" arrived="0" entered="0" left="71" laneChangedFrom="43" laneChangedTo="43"/>
        <edge id="E10" sampledSeconds="4749.65" traveltime="100.87" overlapTraveltime="104.08" density="165.65" laneDensity="82.83" occupancy="40.58" waitingTime="3291.00" timeLoss="4427.74" speed="0.91" speedRelative="0.07" departed="57" arrived="0" entered="0" left="41" laneChangedFrom="26" laneChangedTo="26"/>
        <edge id="E2" sampledSeconds="3645.02" traveltime="50.71" overlapTraveltime="52.54" density="143.82" laneDensity="71.91" occupancy="34.91" waitingTime="2220.00" timeLoss="3204.01" speed="1.60" speedRelative="0.12" departed="0" arrived="0" entered="73" left="63" laneChangedFrom="34" laneChangedTo="34"/>
        <edge id="E3" sampledSeconds="2301.34" traveltime="36.59" overlapTraveltime="38.40" density="90.80" laneDensity="45.40" occupancy="21.79" waitingTime="1427.00" timeLoss="1920.66" speed="2.19" speedRelative="0.16" departed="0" arrived="0" entered="66" left="54" laneChangedFrom="43" laneChangedTo="43"/>
        <edge id="E4" sampledSeconds="336.78" traveltime="7.51" overlapTraveltime="7.91" density="11.75" laneDensity="5.87" occupancy="2.78" waitingTime="0.00" timeLoss="36.96" speed="11.97" speedRelative="0.86" departed="0" arrived="43" entered="44" left="0" laneChangedFrom="0" laneChangedTo="0"/>
        <edge id="E5" sampledSeconds="369.03" traveltime="7.57" overlapTraveltime="7.96" density="12.87" laneDensity="6.44" occupancy="3.04" waitingTime="0.00" timeLoss="45.43" speed="11.89" speedRelative="0.86" departed="0" arrived="47" entered="47" left="0" laneChangedFrom="0" laneChangedTo="0"/>
        <edge id="E6" sampledSeconds="416.41" traveltime="7.36" overlapTraveltime="7.74" density="14.52" laneDensity="7.26" occupancy="3.42" waitingTime="0.00" timeLoss="52.25" speed="12.21" speedRelative="0.88" departed="0" arrived="54" entered="56" left="0" laneChangedFrom="0" laneChangedTo="0"/>
        <edge id="E7" sampledSeconds="319.12" traveltime="7.64" overlapTraveltime="8.03" density="11.13" laneDensity="5.56" occupancy="2.61" waitingTime="0.00" timeLoss="46.12" speed="11.79" speedRelative="0.85" departed="0" arrived="39" entered="41" left="0" laneChangedFrom="0" laneChangedTo="0"/>
        <edge id="E8" sampledSeconds="245.54" traveltime="7.44" overlapTraveltime="7.84" density="8.56" laneDensity="4.28" occupancy="2.03" waitingTime="0.00" timeLoss="27.74" speed="12.07" speedRelative="0.87" departed="0" arrived="31" entered="32" left="0" laneChangedFrom="0" laneChangedTo="0"/>
        <edge id="E9" sampledSeconds="314.97" traveltime="7.57" overlapTraveltime="7.97" density="10.99" laneDensity="5.49" occupancy="2.58" waitingTime="0.00" timeLoss="42.46" speed="11.88" speedRelative="0.85" departed="0" arrived="39" entered="41" left="0" laneChangedFrom="0" laneChangedTo="0"/>
    </interval>
    <interval begin="0.00" end="320.00" id="AllData">
        <edge id="-E1" sampledSeconds="262.10" traveltime="7.63" overlapTraveltime="8.01" density="9.14" laneDensity="4.57" occupancy="2.14" waitingTime="0.00" timeLoss="40.01" speed="11.81" speedRelative="0.85" departed="0" arrived="33" entered="33" left="0" laneChangedFrom="0" laneChangedTo="0"/>
        <edge id="-E10" sampledSeconds="187.47" traveltime="7.22" overlapTraveltime="7.60" density="6.54" laneDensity="3.27" occupancy="1.55" waitingTime="0.00" timeLoss="17.00" speed="12.44" speedRelative="0.90" departed="0" arrived="25" entered="25" left="0" laneChangedFrom="0" laneChangedTo="0"/>
        <edge id="-E2" sampledSeconds="860.10" traveltime="55.35" overlapTraveltime="61.44" density="33.94" laneDensity="16.97" occupancy="7.70" waitingTime="655.00" timeLoss="768.86" speed="1.37" speedRelative="0.10" departed="0" arrived="0" entered="14" left="14" laneChangedFrom="12" laneChangedTo="12"/>
        <edge id="-E3" sampledSeconds="3228.30" traveltime="104.89" overlapTraveltime="109.85" density="127.38" laneDensity="63.69" occupancy="30.78" waitingTime="2446.00" timeLoss="3047.56" speed="0.77" speedRelative="0.06" departed="0" arrived="0" entered="35" left="24" laneChangedFrom="18" laneChangedTo="18"/>
        <edge id="-E4" sampledSeconds="5247.26" traveltime="121.41" overlapTraveltime="124.57" density="183.01" laneDensity="91.50" occupancy="45.03" waitingTime="4171.00" timeLoss="4946.12" speed="0.76" speedRelative="0.05" departed="52" arrived="0" entered="0" left="38" laneChangedFrom="28" laneChangedTo="28"/>
        <edge id="-E5" sampledSeconds="383.35" traveltime="20.77" overlapTraveltime="21.33" density="13.37" laneDensity="6.69" occupancy="3.30" waitingTime="152.00" timeLoss="259.56" speed="4.44" speedRelative="0.32" departed="19" arrived="0" entered="0" left="19" laneChangedFrom="0" laneChangedTo="0"/>
        <edge id="-E6" sampledSeconds="3864.29" traveltime="54.63" overlapTraveltime="55.95" density="134.78" laneDensity="67.39" occupancy="33.11" waitingTime="2424.00" timeLoss="3353.39" speed="1.69" speedRelative="0.12" departed="73" arrived="0" entered="0" left="73" laneChangedFrom="24" laneChangedTo="24"/>
        <edge id="-E7" sampledSeconds="4026.99" traveltime="85.25" overlapTraveltime="86.61" density="140.45" laneDensity="70.23" occupancy="34.94" waitingTime="2722.00" timeLoss="3691.55" speed="1.09" speedRelative="0.08" departed="57" arrived="0" entered="0" left="42" laneChangedFrom="36" laneChangedTo="36"/>
        <edge id="-E8" sampledSeconds="5078.82" traveltime="161.18" overlapTraveltime="166.39" density="177.14" laneDensity="88.57" occupancy="43.43" waitingTime="3983.00" timeLoss="4852.45" speed="0.57" speedRelative="0.04" departed="41" arrived="0" entered="0" left="26" laneChangedFrom="19" laneChangedTo="19"/>
        <edge id="-E9" sampledSeconds="3416.92" traveltime="73.12" overlapTraveltime="75.24" density="119.17" laneDensity="59.59" occupancy="29.10" waitingTime="2156.00" timeLoss="3090.83" speed="1.26" speedRelative="0.09" departed="48" arrived="0" entered="0" left="48" laneChangedFrom="23" laneChangedTo="23"/>
        <edge id="E1" sampledSeconds="4037.51" traveltime="58.61" overlapTraveltime="59.32" density="140.82" laneDensity="70.41" occupancy="35.03" waitingTime="2519.00" timeLoss="3560.39" speed="1.59" speedRelative="0.11" departed="72" arrived="0" entered="0" left="72" laneChangedFrom="46" laneChangedTo="46"/>
        <edge id="E10" sampledSeconds="4749.65" traveltime="100.87" overlapTraveltime="104.08" density="165.65" laneDensity="82.83" occupancy="40.58" waitingTime="3291.00" timeLoss="4427.74" speed="0.91" speedRelative="0.07" departed="57" arrived="0" entered="0" left="41" laneChangedFrom="26" laneChangedTo="26"/>
        <edge id="E2" sampledSeconds="3704.36" traveltime="50.81" overlapTraveltime="52.64" density="146.16" laneDensity="73.08" occupancy="35.66" waitingTime="2260.00" timeLoss="3259.23" speed="1.60" speedRelative="0.12" departed="0" arrived="0" entered="74" left="64" laneChangedFrom="34" laneChangedTo="34"/>
        <edge id="E3" sampledSeconds="2315.45" traveltime="36.21" overlapTraveltime="38.00" density="91.36" laneDensity="45.68" occupancy="21.96" waitingTime="1430.00" timeLoss="1930.66" speed="2.22" speedRelative="0.16" departed="0" arrived="0" entered="67" left="55" laneChangedFrom="45" laneChangedTo="45"/>
        <edge id="E4" sampledSeconds="343.12" traveltime="7.48" overlapTraveltime="7.87" density="11.97" laneDensity="5.98" occupancy="2.85" waitingTime="0.00" timeLoss="38.73" speed="12.02" speedRelative="0.87" departed="0" arrived="44" entered="45" left="0" laneChangedFrom="0" laneChangedTo="0"/>
        <edge id="E5" sampledSeconds="369.03" traveltime="7.57" overlapTraveltime="7.96" density="12.87" laneDensity="6.44" occupancy="3.04" waitingTime="0.00" timeLoss="45.43" speed="11.89" speedRelative="0.86" departed="0" arrived="47" entered="47" left="0" laneChangedFrom="0" laneChangedTo="0"/>
        <edge id="E6" sampledSeconds="416.41" traveltime="7.36" overlapTraveltime="7.74" density="14.52" laneDensity="7.26" occupancy="3.42" waitingTime="0.00" timeLoss="52.25" speed="12.21" speedRelative="0.88" departed="0" arrived="54" entered="56" left="0" laneChangedFrom="0" laneChangedTo="0"/>
        <edge id="E7" sampledSeconds="319.12" traveltime="7.64" overlapTraveltime="8.03" density="11.13" laneDensity="5.56" occupancy="2.61" waitingTime="0.00" timeLoss="46.12" speed="11.79" speedRelative="0.85" departed="0" arrived="39" entered="41" left="0" laneChangedFrom="0" laneChangedTo="0"/>
        <edge id="E8" sampledSeconds="245.54" traveltime="7.44" overlapTraveltime="7.84" density="8.56" laneDensity="4.28" occupancy="2.03" waitingTime="0.00" timeLoss="27.74" speed="12.07" speedRelative="0.87" departed="0" arrived="31" entered="32" left="0" laneChangedFrom="0" laneChangedTo="0"/>
        <edge id="E9" sampledSeconds="314.97" traveltime="7.57" overlapTraveltime="7.97" density="10.99" laneDensity="5.49" occupancy="2.58" waitingTime="0.00" timeLoss="42.46" speed="11.88" speedRelative="0.85" departed="0" arrived="39" entered="41" left="0" laneChangedFrom="0" laneChangedTo="0"/>
    </interval>
</meandata>
